110
TS_RR_C4.log	Energy: -1757320.7519759
Fe         0.84424        0.41009       -0.31727
N         -0.28694       -1.17988       -0.87631
N         -0.83568        1.44929        0.02568
N          1.97340        2.01614        0.15057
N          2.53031       -0.57159       -0.90867
C         -2.12680        0.98499       -0.01877
C         -3.06759        2.04659        0.32267
C         -4.56012        1.91446        0.30645
C         -5.15769        2.08147       -1.10068
C         -6.71065        2.15372       -1.14931
C         -1.63375       -1.33558       -0.69045
C         -2.04450       -2.70079       -1.01094
C         -3.43785       -3.22801       -0.84091
C         -4.52245       -2.54569       -1.70914
C         -5.70370       -1.90792       -0.91966
C         -0.91353       -3.34997       -1.43013
C          0.17934       -2.38847       -1.32995
C         -0.75650       -4.76759       -1.88861
C          2.59347       -1.83022       -1.43715
C          3.97834       -2.18595       -1.73286
C          4.39706       -3.46572       -2.28630
C          5.54072       -3.73274       -2.94048
C          4.74700       -1.10733       -1.33835
C          3.82378       -0.11369       -0.82998
C          6.23773       -0.97650       -1.35538
C          3.34147        2.09964        0.16871
C          3.76168        3.41127        0.66111
C          5.12094        3.88024        0.90610
C          6.17133        3.14495        1.30621
C          2.60469        4.13044        0.86872
C          1.50513        3.24074        0.55448
C          2.45640        5.53345        1.37104
C         -2.50207       -0.32214       -0.30314
C          0.16304        3.60038        0.64262
C          4.20028        1.12479       -0.32086
C          1.50233       -2.67291       -1.63557
C         -2.31127        3.16315        0.56933
C         -0.92037        2.77167        0.39466
C         -2.77379        4.53681        0.94754
O         -7.21593        2.11772       -2.30511
O         -6.75002       -1.69736       -1.58482
O         -7.32277        2.25881       -0.05154
O         -5.50952       -1.61583        0.29871
H          5.27344        4.95262        0.78248
H          3.69807       -4.28986       -2.14871
H         -3.43531       -4.30699       -1.03029
H         -3.73653       -3.08835        0.20402
H         -4.82729        1.26035       -1.74985
H         -4.76306        3.00039       -1.55950
H          6.09298        2.08135        1.50957
H          7.14309        3.60296        1.46595
H          6.28077       -2.97157       -3.16349
H          5.75460       -4.73761       -3.29271
H         -4.93917       -3.24800       -2.43925
H         -4.07490       -1.73587       -2.30087
H         -3.85623        4.55669        1.10318
H         -2.53768        5.27452        0.16930
H         -2.29674        4.88675        1.87190
H          1.82264        6.13347        0.70660
H          3.42470        6.03485        1.45193
H          1.98964        5.55885        2.36441
H          6.58930       -0.27575       -0.59202
H          6.61312       -0.61856       -2.32373
H          6.71208       -1.94605       -1.16785
H         -0.07228       -5.33146       -1.24132
H         -0.34659       -4.82027       -2.90561
H         -1.71636       -5.29171       -1.89254
H         -0.05466        4.61680        0.95331
H         -4.86602        0.93763        0.69619
H         -5.01523        2.66572        0.95908
H         -3.54977       -0.58046       -0.19069
H          1.70427       -3.65951       -2.03706
H          5.25513        1.36376       -0.33325
C          1.00549       -0.44948        1.31328
C          2.31505       -0.68510        1.98446
H          0.31066       -1.26815        1.50349
O          2.98649        0.11828        2.61059
O          2.72181       -1.95979        1.76864
C          4.08998       -2.26312        2.12364
H          4.20728       -2.15165        3.20624
H          4.74209       -1.53673        1.63052
C          4.37596       -3.67823        1.66366
H          5.40396       -3.95073        1.92561
H          3.69767       -4.39088        2.14459
H          4.26166       -3.75791        0.57913
C          0.02304        0.81577        3.00472
C         -0.10636       -0.26931        3.81168
H          0.87357        1.47737        3.10335
H         -0.76993        1.14270        2.34816
H          0.71047       -0.50609        4.49189
C         -1.19754       -1.23896        3.78209
C         -2.31274       -1.09347        2.93279
C         -1.11673       -2.39358        4.58452
C         -3.30107       -2.07161        2.86899
H         -2.39660       -0.21922        2.30033
C         -2.11130       -3.36865        4.53434
H         -0.26121       -2.52304        5.24284
C         -3.20191       -3.21339        3.67322
H         -4.12811       -1.95007        2.17286
H         -2.03157       -4.25342        5.15964
H         -3.96945       -3.98098        3.62556
N          0.73274        1.08620       -2.29134
C          1.71008        1.64341       -2.98840
C         -0.37576        1.05033       -3.11519
C         -0.05472        1.59735       -4.33082
N          1.27315        1.96776       -4.23142
H          2.71340        1.81774       -2.63332
H          1.82559        2.40385       -4.95655
H         -0.62632        1.75475       -5.23177
H         -1.31019        0.63840       -2.76824
