110
TS_RR_C3.log	Energy: -1757321.4336080
Fe        -0.92983       -0.21237       -0.38455
N          0.02224        1.58021       -0.32713
N          0.86993       -1.12714       -0.42405
N         -1.86570       -1.97278       -0.61340
N         -2.72051        0.73855       -0.49033
C          2.10231       -0.55277       -0.25174
C          3.15680       -1.55693       -0.35514
C          4.63075       -1.29003       -0.29778
C          5.23910       -1.06520       -1.69208
C          6.78670       -0.91625       -1.72077
C          1.36018        1.79731       -0.11838
C          1.63750        3.22945       -0.04439
C          3.00187        3.80830        0.17561
C          3.99051        3.58592       -0.99492
C          5.32408        2.88131       -0.60535
C          0.43926        3.86345       -0.23764
C         -0.56458        2.81750       -0.39477
C          0.15046        5.33293       -0.27373
C         -2.92778        2.08925       -0.54701
C         -4.35748        2.38167       -0.60603
C         -4.91851        3.72514       -0.63457
C         -6.12510        4.08888       -1.10145
C         -5.00179        1.15936       -0.57849
C         -3.96154        0.15274       -0.52154
C         -6.47304        0.88615       -0.56372
C         -3.21723       -2.20815       -0.56910
C         -3.48210       -3.64113       -0.69295
C         -4.77015       -4.32290       -0.62983
C         -5.84458       -3.96530        0.09226
C         -2.25590       -4.24334       -0.87853
C         -1.26313       -3.19235       -0.80141
C         -1.95031       -5.69893       -1.05353
C          2.33245        0.80605       -0.05473
C          0.11096       -3.41705       -0.84547
C         -4.19176       -1.21896       -0.53675
C         -1.92378        3.05407       -0.53864
C          2.52666       -2.74737       -0.61074
C          1.09936       -2.46326       -0.64622
C          3.14309       -4.09637       -0.82024
O          7.26847       -0.49927       -2.81007
O          6.25810        2.99040       -1.44168
O          7.42093       -1.24149       -0.68002
O          5.34525        2.23220        0.48112
H         -4.83729       -5.24254       -1.21137
H         -4.28043        4.50985       -0.22958
H          2.91034        4.87824        0.39246
H          3.45813        3.33895        1.05474
H          4.79333       -0.17558       -2.15525
H          4.96961       -1.90709       -2.34712
H         -5.84622       -3.09699        0.74400
H         -6.75465       -4.55743        0.06582
H         -6.81252        3.38509       -1.55896
H         -6.44890        5.12448       -1.05279
H          4.23073        4.53043       -1.49555
H          3.52306        2.95417       -1.76238
H          4.21876       -4.06865       -0.62337
H          3.00468       -4.45433       -1.84903
H          2.70098       -4.85155       -0.15815
H         -1.29555       -5.87075       -1.91627
H         -2.86118       -6.28508       -1.20266
H         -1.43578       -6.11088       -0.17541
H         -6.70156       -0.06202       -0.06716
H         -6.89535        0.83342       -1.57652
H         -7.00867        1.68281       -0.03612
H         -0.52270        5.63765        0.53838
H         -0.33290        5.62785       -1.21389
H          1.06949        5.91792       -0.17709
H          0.43694       -4.43929       -1.00567
H          4.84387       -0.41297        0.32104
H          5.15305       -2.13262        0.16812
H          3.35666        1.12871        0.11000
H         -2.23143        4.09151       -0.60471
H         -5.22150       -1.54591       -0.59242
C         -0.89397       -0.06166        1.43988
C         -2.00245        0.54457        2.22589
H          0.08167        0.10322        1.89991
O         -3.04040        0.01388        2.58553
O         -1.72717        1.84809        2.46486
C         -2.82455        2.65607        2.94877
H         -3.11846        2.29682        3.93978
H         -3.67233        2.52718        2.26960
C         -2.34570        4.09309        2.98285
H         -3.14868        4.74325        3.34571
H         -1.48349        4.20362        3.64873
H         -2.05683        4.42069        1.98022
C         -0.97138       -2.25463        2.38222
C         -0.45704       -1.78419        3.54329
H         -2.04143       -2.34052        2.24647
H         -0.34906       -2.66817        1.60127
H         -1.14719       -1.42774        4.30611
C          0.96144       -1.61196        3.85257
C          1.97968       -1.93536        2.93370
C          1.33178       -1.06369        5.09461
C          3.31635       -1.71686        3.24992
H          1.72720       -2.34353        1.96290
C          2.67221       -0.85029        5.41321
H          0.55605       -0.80279        5.81020
C          3.67012       -1.17541        4.49106
H          4.08286       -1.96302        2.52143
H          2.93741       -0.42661        6.37760
H          4.71484       -1.00464        4.73427
N         -0.82531       -0.05530       -2.46457
C         -1.81140       -0.27291       -3.31967
C          0.28402        0.29019       -3.21168
C         -0.04529        0.27866       -4.54272
N         -1.37892       -0.08126       -4.59161
H         -2.81694       -0.56156       -3.05695
H         -1.93656       -0.18671       -5.42779
H          0.52383        0.48633       -5.43501
H          1.22373        0.51938       -2.73441
