110
TS_SS_C2.log	Energy: -1757321.4297237
Fe         0.68170       -0.29625       -0.23790
N         -0.30812       -1.82191        0.59516
N         -1.04748        0.72624       -0.44869
N          1.66380        1.18186       -1.25537
N          2.40174       -1.36937       -0.14947
C         -2.30615        0.28858       -0.12356
C         -3.30238        1.31095       -0.43628
C         -4.79073        1.16392       -0.33319
C         -5.44875        0.87078       -1.69356
C         -7.00194        0.84530       -1.65154
C         -1.66270       -1.91123        0.80948
C         -1.99067       -3.16041        1.49172
C         -3.36108       -3.63029        1.88580
C         -4.19954       -4.20422        0.71934
C         -4.89670       -3.09888       -0.11622
C         -0.80198       -3.81619        1.68035
C          0.23680       -2.97119        1.11238
C         -0.55339       -5.14871        2.31841
C          2.58904       -2.57416        0.46458
C          3.97067       -3.01965        0.31149
C          4.50016       -4.25128        0.87932
C          5.56850       -4.94638        0.45309
C          4.60728       -2.04593       -0.43204
C          3.61016       -1.02888       -0.70840
C          6.04543       -1.98662       -0.84264
C          2.98412        1.19039       -1.62140
C          3.31856        2.46237       -2.26361
C          4.60187        2.90407       -2.79992
C          5.83995        2.56175       -2.40576
C          2.15516        3.20335       -2.27372
C          1.14106        2.39354       -1.63267
C          1.93262        4.58813       -2.79820
C         -2.59400       -0.93707        0.46740
C         -0.18333        2.78344       -1.46428
C          3.86814        0.14034       -1.41718
C          1.58057       -3.31607        1.07136
C         -2.60398        2.38360       -0.92655
C         -1.20291        1.99633       -0.94441
C         -3.13954        3.70267       -1.39166
O         -7.56156        1.56740       -0.77982
O         -4.69629       -3.09241       -1.36011
O         -7.56639        0.12464       -2.51997
O         -5.61222       -2.29409        0.54984
H          4.52578        3.63325       -3.60662
H          3.96075       -4.64032        1.74245
H         -3.25113       -4.39288        2.66510
H         -3.94218       -2.81210        2.32589
H         -5.08559       -0.08396       -2.08949
H         -5.14281        1.64292       -2.41571
H          6.03325        1.88883       -1.57766
H          6.71071        2.98033       -2.90185
H          6.14305       -4.65981       -0.42149
H          5.88518       -5.84770        0.96983
H         -4.98815       -4.83732        1.14986
H         -3.57730       -4.83841        0.07852
H         -4.20603        3.79231       -1.16527
H         -3.01913        3.83642       -2.47484
H         -2.62298        4.54013       -0.90600
H          2.81717        4.97131       -3.31352
H          1.69519        5.29042       -1.98861
H          1.09294        4.61942       -3.50316
H          6.38858       -0.95490       -0.96636
H          6.22656       -2.50584       -1.79366
H          6.68190       -2.46596       -0.09106
H          0.18848       -5.07997        3.12392
H         -0.16879       -5.87790        1.59328
H         -1.47054       -5.56377        2.74511
H         -0.45543        3.77133       -1.82021
H         -5.05443        0.35443        0.35460
H         -5.24352        2.07749        0.06673
H         -3.63310       -1.15295        0.68724
H          1.85298       -4.27126        1.50551
H          4.85966        0.24891       -1.83315
C          1.12713        0.71905        1.21964
C          2.45567        0.67599        1.89090
H          0.68822        1.71717        1.25867
O          2.86372       -0.14905        2.69129
O          3.21324        1.70662        1.44718
C          4.61830        1.67895        1.78320
H          5.07222        0.82640        1.26732
H          4.72421        1.52801        2.86079
C          5.21317        2.99759        1.33100
H          6.28822        3.01025        1.53996
H          5.06770        3.14220        0.25677
H          4.74874        3.83450        1.86313
C         -0.22314        0.07519        3.07192
C          0.02936        1.25418        3.68944
H         -1.08668       -0.07154        2.43880
H          0.36451       -0.80532        3.29727
H          0.88506        1.31428        4.35987
C         -0.68890        2.50932        3.47559
C         -1.75141        2.62450        2.55666
C         -0.28609        3.65983        4.17890
C         -2.38701        3.84533        2.35687
H         -2.07310        1.76231        1.98538
C         -0.92636        4.88230        3.98061
H          0.53762        3.58719        4.88462
C         -1.98015        4.97979        3.06841
H         -3.19826        3.91034        1.63833
H         -0.60124        5.75837        4.53436
H         -2.47808        5.93184        2.90916
N          0.32609       -1.16871       -2.10232
C          0.52929       -2.43715       -2.42066
C         -0.18746       -0.55137       -3.22618
C         -0.29445       -1.46998       -4.23868
N          0.16438       -2.66074       -3.70828
H          0.92211       -3.19454       -1.76087
H          0.21870       -3.54625       -4.19220
H         -0.64319       -1.39400       -5.25639
H         -0.43850        0.49748       -3.21649
